 VARIABLES=X
 ZONE I=           10000
0.539818
0.761550
0.060299
0.796003
0.306312
0.082776
0.665420
0.460751
0.925741
0.619155
0.319432
0.144390
0.751642
0.445997
0.848639
0.241685
0.782835
0.594458
0.879413
0.208501
0.603700
0.078474
0.160274
0.205695
0.767275
0.742511
0.484972
0.641783
0.555514
0.115808
0.161693
0.358830
0.765908
0.072290
0.116120
0.371203
0.532336
0.487026
0.112077
0.559386
0.203896
0.769397
0.532571
0.091570
0.104244
0.802976
0.186627
0.900974
0.954886
0.066285
0.623188
0.193923
0.545875
0.316649
0.393837
0.814224
0.998194
0.296896
0.529550
0.340590
0.171345
0.038595
0.736055
0.062336
0.756580
0.510354
0.242701
0.547710
0.154323
0.719109
0.245318
0.536405
0.760608
0.407079
0.406837
0.743531
0.420859
0.197912
0.741869
0.425331
0.042485
0.911034
0.383927
0.708687
0.047852
0.782211
0.378183
0.070315
0.794159
0.563429
0.766284
0.616704
0.365024
0.281857
0.621955
0.277783
0.476736
0.234552
0.519594
0.469526
0.431567
0.037744
0.248971
0.001478
0.902745
0.800034
0.956153
0.028346
0.375797
0.229535
0.332998
0.736203
0.914966
0.926000
0.932582
0.630100
0.081072
0.214668
0.848567
0.940780
0.289380
0.327366
0.987923
0.532881
0.668057
0.905707
0.671656
0.482639
0.989714
0.935185
0.940362
0.688974
0.893770
0.104645
0.529019
0.478317
0.850218
0.549723
0.420462
0.833482
0.245293
0.688964
0.865357
0.323622
0.582603
0.529346
0.811342
0.701979
0.457964
0.157021
0.003301
0.065527
0.746990
0.048123
0.142124
0.738763
0.736185
0.842766
0.379978
0.260435
0.703442
0.671505
0.062226
0.080134
0.140136
0.178277
0.115562
0.817424
0.903953
0.314148
0.988017
0.932212
0.844032
0.250866
0.219649
0.819951
0.781495
0.339237
0.725190
0.818153
0.142787
0.178504
0.918679
0.985421
0.968664
0.844174
0.479488
0.069647
0.843345
0.529343
0.622002
0.502744
0.396263
0.982033
0.947232
0.042498
0.425854
0.076311
0.455607
0.489575
0.339446
0.566855
0.984491
0.835187
0.076925
0.764150
0.916510
0.889138
0.799758
0.420458
0.419266
0.774126
0.349191
0.304143
0.882426
0.128301
0.545158
0.854247
0.903877
0.429501
0.709381
0.997561
0.916900
0.716880
0.899776
0.793952
0.917874
0.346892
0.695619
0.579912
0.806636
0.322653
0.528134
0.219511
0.844019
0.327734
0.983607
0.265089
0.366982
0.850661
0.296658
0.006594
0.034243
0.391240
0.713548
0.501051
0.735622
0.690151
0.472243
0.322936
0.377237
0.722466
0.861332
0.711942
0.657473
0.101668
0.913316
0.865009
0.680256
0.513947
0.016536
0.617832
0.154335
0.595500
0.468938
0.733414
0.531480
0.422988
0.527382
0.747645
0.343515
0.203675
0.032673
0.829867
0.081693
0.019532
0.751358
0.825379
0.764827
0.562752
0.379075
0.927523
0.605207
0.590785
0.782210
0.595928
0.347834
0.338807
0.066040
0.293986
0.271582
0.667448
0.687223
0.070685
0.174126
0.415465
0.821169
0.420088
0.032817
0.904631
0.554519
0.452781
0.561786
0.796041
0.145091
0.020720
0.715892
0.966738
0.883629
0.076909
0.844000
0.945070
0.523593
0.567768
0.333916
0.471971
0.856232
0.863199
0.253342
0.305244
0.701527
0.665787
0.457557
0.687361
0.733738
0.255319
0.163035
0.535359
0.060936
0.062881
0.534420
0.530706
0.075514
0.262425
0.230603
0.701412
0.889754
0.956049
0.577482
0.982900
0.119786
0.776217
0.764966
0.292889
0.170289
0.537240
0.712880
0.479646
0.673318
0.733939
0.704325
0.545787
0.104800
0.774047
0.670108
0.486443
0.462361
0.623629
0.892224
0.855465
0.504763
0.688994
0.265404
0.908137
0.868895
0.627683
0.439682
0.622885
0.607323
0.716730
0.286216
0.694510
0.687855
0.115948
0.572958
0.403394
0.868273
0.039871
0.745354
0.927461
0.525151
0.536210
0.566930
0.234466
0.121904
0.356072
0.472396
0.527684
0.763617
0.905093
0.034708
0.699826
0.390824
0.679934
0.372217
0.994037
0.950484
0.234298
0.462879
0.812252
0.630920
0.871553
0.270610
0.552187
0.446309
0.339328
0.463138
0.725987
0.797360
0.645775
0.263859
0.056926
0.228412
0.568038
0.794996
0.753948
0.658460
0.022563
0.470624
0.325963
0.643444
0.087317
0.047700
0.243495
0.464055
0.165035
0.920876
0.869556
0.679736
0.203609
0.494551
0.248052
0.741744
0.794068
0.031455
0.044285
0.922830
0.141713
0.443429
0.070940
0.468246
0.527581
0.456640
0.198739
0.872126
0.631165
0.971921
0.963395
0.345817
0.440190
0.037125
0.135796
0.872294
0.510874
0.387393
0.894333
0.222971
0.896584
0.075551
0.329580
0.537196
0.092653
0.085469
0.796119
0.908665
0.744034
0.216273
0.607453
0.390332
0.211160
0.935816
0.837065
0.428561
0.324231
0.788175
0.523544
0.279661
0.883787
0.785056
0.742791
0.596144
0.631960
0.889861
0.272143
0.525259
0.889179
0.628594
0.883981
0.170172
0.303595
0.725111
0.501268
0.547748
0.920362
0.415714
0.747297
0.668679
0.482347
0.909692
0.116233
0.834630
0.175615
0.263035
0.357696
0.546572
0.271874
0.597757
0.419704
0.025012
0.073760
0.463725
0.925427
0.423782
0.479627
0.053769
0.040376
0.385517
0.415648
0.051898
0.213122
0.874556
0.525015
0.423853
0.164717
0.890427
0.420334
0.008386
0.189070
0.970823
0.071108
0.642917
0.540930
0.983017
0.796244
0.082768
0.593852
0.110216
0.144133
0.248033
0.092467
0.280487
0.998894
0.143954
0.332337
0.754370
0.236600
0.091121
0.008005
0.486161
0.083536
0.884731
0.862206
0.055618
0.408644
0.317309
0.929692
0.176068
0.770253
0.842873
0.483812
0.390771
0.517321
0.062549
0.763319
0.203680
0.503598
0.625344
0.085547
0.701644
0.131279
0.208706
0.809578
0.902075
0.042329
0.611582
0.620245
0.270415
0.520854
0.362273
0.965951
0.123939
0.537490
0.027157
0.227114
0.157506
0.772324
0.486920
0.013246
0.841176
0.718316
0.169253
0.630081
0.967737
0.204587
0.957139
0.713206
0.598532
0.479190
0.718947
0.128945
0.744113
0.901738
0.409904
0.525435
0.624176
0.601984
0.356802
0.285333
0.055469
0.740257
0.496931
0.528478
0.675795
0.341247
0.918494
0.516713
0.957148
0.275997
0.091280
0.670577
0.383493
0.799266
0.185250
0.899745
0.713599
0.902035
0.513105
0.993990
0.691585
0.379126
0.255946
0.666377
0.464178
0.095145
0.273131
0.520027
0.921349
0.629115
0.655210
0.973317
0.063368
0.825781
0.583627
0.178239
0.340673
0.700586
0.617518
0.047866
0.188487
0.368239
0.609034
0.186167
0.286428
0.350680
0.779365
0.584971
0.087247
0.582983
0.527359
0.336722
0.750218
0.963362
0.973053
0.842281
0.837081
0.245827
0.536265
0.065615
0.487679
0.229522
0.508922
0.538451
0.618932
0.322970
0.597050
0.902860
0.422262
0.035735
0.705321
0.464769
0.039502
0.897131
0.217200
0.387243
0.074525
0.453100
0.421293
0.888252
0.822077
0.410909
0.509153
0.089952
0.007300
0.859364
0.590664
0.626348
0.428066
0.654342
0.581242
0.971322
0.799917
0.084736
0.860868
0.507865
0.339955
0.492281
0.850569
0.575147
0.407352
0.185150
0.586704
0.315376
0.837811
0.843649
0.265940
0.604837
0.880774
0.034545
0.748791
0.553723
0.900540
0.410457
0.883753
0.071737
0.741204
0.870605
0.382687
0.078579
0.070800
0.646885
0.265341
0.586470
0.408703
0.121977
0.780561
0.617858
0.306266
0.228671
0.823945
0.388071
0.463425
0.532871
0.634460
0.733707
0.779280
0.177988
0.557249
0.517430
0.127559
0.544022
0.199853
0.751862
0.138755
0.786208
0.451292
0.436349
0.147373
0.567743
0.570971
0.239077
0.161066
0.583913
0.635967
0.749184
0.318560
0.767078
0.698280
0.174983
0.352750
0.020008
0.299698
0.113779
0.870301
0.567250
0.282849
0.765085
0.552557
0.125871
0.969439
0.058621
0.269495
0.871117
0.724337
0.153112
0.816043
0.014899
0.035141
0.485378
0.003251
0.084646
0.751339
0.744856
0.047629
0.218539
0.451663
0.004056
0.883217
0.359792
0.010446
0.415241
0.052576
0.563896
0.392187
0.918193
0.864717
0.370936
0.504890
0.392110
0.025505
0.208455
0.337425
0.720896
0.302155
0.095985
0.208191
0.581406
0.882710
0.261932
0.625628
0.683300
0.603167
0.843186
0.538144
0.888180
0.483036
0.782685
0.479571
0.202341
0.017707
0.552817
0.328525
0.046220
0.484385
0.116466
0.152188
0.477714
0.879606
0.798576
0.707420
0.866149
0.772501
0.477499
0.928484
0.935080
0.085560
0.525611
0.718700
0.823331
0.346091
0.789679
0.981165
0.688546
0.209765
0.751130
0.788166
0.807671
0.717653
0.059877
0.026569
0.352656
0.046922
0.341696
0.384879
0.119174
0.902507
0.957223
0.662270
0.750566
0.338148
0.080385
0.001433
0.758688
0.953343
0.407232
0.753381
0.795579
0.484353
0.834994
0.294251
0.367078
0.648963
0.521353
0.295841
0.314433
0.541624
0.569779
0.532598
0.619769
0.657881
0.829665
0.260662
0.519447
0.449208
0.185662
0.179341
0.411025
0.903001
0.438644
0.034372
0.840758
0.073558
0.444581
0.182395
0.847763
0.331251
0.050224
0.076168
0.800970
0.125759
0.924664
0.275008
0.673935
0.608735
0.198389
0.679297
0.259815
0.835285
0.997708
0.440964
0.617962
0.379363
0.313462
0.512247
0.611834
0.564252
0.080743
0.968132
0.936433
0.817501
0.858094
0.052048
0.425681
0.884038
0.252504
0.095294
0.912382
0.483629
0.740220
0.544816
0.822131
0.703229
0.790981
0.229447
0.914578
0.828773
0.443501
0.823405
0.319957
0.232715
0.271228
0.959122
0.764096
0.958114
0.999263
0.282098
0.055643
0.922056
0.961089
0.653714
0.068575
0.590704
0.989275
0.704392
0.169977
0.231514
0.556526
0.319775
0.253408
0.782019
0.657040
0.646562
0.006760
0.127222
0.573973
0.209506
0.287612
0.654245
0.685117
0.559503
0.415342
0.967008
0.969831
0.145491
0.104532
0.091869
0.105190
0.587171
0.906411
0.823115
0.774652
0.552838
0.472299
0.464032
0.423783
0.383784
0.770341
0.266573
0.065719
0.673682
0.162264
0.536439
0.407626
0.239210
0.554684
0.875980
0.764665
0.456113
0.537608
0.976237
0.179060
0.967017
0.179625
0.425018
0.011881
0.400965
0.507298
0.266168
0.428371
0.553994
0.481305
0.413194
0.130619
0.322153
0.380002
0.826629
0.600348
0.003976
0.751889
0.127729
0.953069
0.947950
0.365381
0.040395
0.599205
0.369828
0.385318
0.227610
0.521379
0.673304
0.907629
0.519512
0.295480
0.637462
0.547038
0.163002
0.890854
0.044105
0.364666
0.546800
0.151821
0.270892
0.135055
0.260735
0.650280
0.888495
0.111739
0.008225
0.778954
0.264979
0.806140
0.123898
0.264293
0.033788
0.253423
0.078997
0.293976
0.087329
0.479753
0.748797
0.341843
0.868140
0.322874
0.407396
0.662458
0.695795
0.177721
0.662485
0.377261
0.601527
0.260840
0.748771
0.965549
0.955721
0.409947
0.637270
0.664634
0.557929
0.700338
0.899117
0.569732
0.555507
0.616184
0.560951
0.830924
0.854361
0.514677
0.622210
0.096497
0.042189
0.403337
0.234799
0.125945
0.127701
0.579411
0.960248
0.496495
0.482575
0.691601
0.565969
0.801658
0.067058
0.246643
0.189861
0.695933
0.375176
0.161989
0.996380
0.273499
0.149724
0.424379
0.010922
0.013107
0.643530
0.244922
0.964926
0.208289
0.683907
0.440635
0.134212
0.427082
0.099312
0.900828
0.168145
0.398735
0.280297
0.996707
0.432702
0.868228
0.565982
0.345179
0.669507
0.490709
0.030031
0.835540
0.909932
0.264713
0.555008
0.625940
0.652670
0.604057
0.372999
0.880765
0.240950
0.723582
0.145885
0.193577
0.652493
0.708719
0.899880
0.727274
0.674895
0.684427
0.363945
0.923733
0.292277
0.338313
0.566952
0.784345
0.011321
0.532043
0.137482
0.765869
0.463737
0.245671
0.330962
0.544993
0.353838
0.076912
0.881847
0.439481
0.709953
0.505000
0.270348
0.635665
0.775217
0.323160
0.011496
0.538740
0.892690
0.096723
0.952685
0.944886
0.988812
0.714079
0.811058
0.179093
0.154478
0.474934
0.445682
0.463589
0.118939
0.268482
0.601618
0.263386
0.040470
0.477464
0.491914
0.466247
0.314931
0.207159
0.747400
0.300507
0.309467
0.256561
0.861224
0.786656
0.746155
0.168897
0.197870
0.725527
0.140832
0.626871
0.375728
0.324571
0.019839
0.725990
0.128750
0.754270
0.194575
0.263706
0.618886
0.584627
0.648262
0.292570
0.251350
0.222709
0.028771
0.760300
0.700116
0.005762
0.402845
0.016198
0.648435
0.880983
0.339622
0.777072
0.023576
0.110059
0.473056
0.854919
0.888601
0.408135
0.489505
0.000602
0.112606
0.975843
0.481192
0.441021
0.382672
0.383197
0.790426
0.664926
0.328051
0.372106
0.413918
0.354021
0.509152
0.636435
0.274612
0.683744
0.242520
0.840943
0.935408
0.093487
0.413038
0.798310
0.237834
0.636815
0.263023
0.914547
0.203382
0.365286
0.168785
0.427068
0.523451
0.784195
0.473779
0.693170
0.384768
0.429536
0.429482
0.225890
0.249362
0.198794
0.906784
0.212604
0.334292
0.488165
0.762614
0.093853
0.601287
0.239180
0.201174
0.216492
0.900769
0.585875
0.719862
0.038208
0.794103
0.927682
0.532205
0.950739
0.050763
0.139199
0.238103
0.681852
0.906702
0.427007
0.496995
0.595236
0.307333
0.948607
0.147819
0.689671
0.760008
0.789184
0.381004
0.668816
0.107690
0.276467
0.338561
0.524404
0.088991
0.232251
0.449663
0.784192
0.571399
0.199224
0.870610
0.211977
0.545165
0.127997
0.727438
0.493571
0.001878
0.175017
0.556431
0.652843
0.795933
0.026487
0.955575
0.875528
0.702825
0.649811
0.476754
0.810499
0.112901
0.593530
0.274610
0.485542
0.375551
0.164216
0.036498
0.394596
0.397740
0.200499
0.344255
0.429528
0.454123
0.342185
0.411160
0.187500
0.740438
0.964642
0.951668
0.153493
0.486176
0.272782
0.479040
0.316927
0.597762
0.462494
0.930525
0.377289
0.440747
0.015361
0.623827
0.989232
0.738610
0.125036
0.738058
0.695410
0.938573
0.439185
0.588267
0.868552
0.800048
0.307387
0.689254
0.552037
0.079285
0.617415
0.442843
0.497752
0.449551
0.801581
0.037880
0.184690
0.507460
0.177456
0.158242
0.673422
0.031295
0.151088
0.478597
0.047307
0.029348
0.233742
0.705199
0.721574
0.822819
0.781431
0.325117
0.258489
0.327463
0.132485
0.420072
0.516218
0.363403
0.571678
0.975093
0.023822
0.735534
0.822453
0.845636
0.617492
0.948238
0.673594
0.767253
0.189625
0.300331
0.226204
0.274083
0.264756
0.137419
0.668383
0.714929
0.077987
0.904421
0.913720
0.864944
0.220410
0.522605
0.143801
0.383721
0.188496
0.681475
0.078081
0.062692
0.291213
0.033491
0.417917
0.809769
0.795792
0.528252
0.988452
0.317228
0.779285
0.645169
0.419857
0.923624
0.418579
0.372311
0.737191
0.416614
0.687079
0.003977
0.516804
0.625979
0.433616
0.313274
0.520193
0.932589
0.104631
0.676651
0.526049
0.158146
0.822964
0.448234
0.770951
0.011739
0.459881
0.561980
0.503264
0.670605
0.163440
0.386417
0.326588
0.231292
0.315942
0.582006
0.335726
0.752876
0.504352
0.927880
0.688453
0.946860
0.547151
0.500115
0.898033
0.566217
0.201712
0.247496
0.789681
0.103364
0.335399
0.195911
0.900233
0.241556
0.428734
0.322558
0.446843
0.384213
0.676802
0.733031
0.802876
0.796283
0.306177
0.198933
0.340355
0.941833
0.800721
0.084128
0.544555
0.638161
0.210337
0.618319
0.584795
0.454995
0.368659
0.287453
0.135964
0.331284
0.459586
0.661051
0.746719
0.923900
0.270364
0.434982
0.300295
0.685618
0.751210
0.988891
0.933190
0.868179
0.019760
0.981459
0.141784
0.568034
0.361759
0.509123
0.773287
0.245601
0.572270
0.931111
0.329966
0.859168
0.674311
0.001691
0.273063
0.401946
0.762345
0.283707
0.488836
0.837006
0.533978
0.486066
0.779114
0.324183
0.889894
0.877376
0.854654
0.574576
0.877530
0.768489
0.226013
0.780608
0.700673
0.462628
0.099149
0.922312
0.066815
0.128610
0.696462
0.512163
0.330976
0.145481
0.619480
0.454580
0.592411
0.348972
0.122016
0.886460
0.463474
0.480532
0.306231
0.867353
0.861994
0.373319
0.085120
0.297961
0.181496
0.914325
0.169675
0.355781
0.007780
0.325700
0.793006
0.728766
0.235891
0.809796
0.892677
0.841941
0.923123
0.550389
0.246532
0.598479
0.958530
0.886095
0.783060
0.323797
0.619291
0.064822
0.698044
0.918627
0.571777
0.091197
0.524863
0.570090
0.365939
0.985273
0.260411
0.921918
0.952152
0.895528
0.600048
0.339495
0.131000
0.677649
0.039655
0.791031
0.808982
0.991521
0.877232
0.141403
0.619940
0.022900
0.479918
0.065954
0.232520
0.260677
0.775005
0.601933
0.794398
0.585228
0.864595
0.988745
0.765150
0.506930
0.109353
0.803968
0.008435
0.856110
0.313683
0.056956
0.767595
0.498265
0.957800
0.093396
0.143756
0.296411
0.348801
0.500166
0.738103
0.455813
0.770284
0.057022
0.251361
0.728310
0.437700
0.385304
0.996622
0.562707
0.045141
0.815895
0.455894
0.050639
0.116418
0.134491
0.681209
0.766956
0.137516
0.769783
0.307453
0.473982
0.711446
0.387950
0.144493
0.222377
0.446827
0.954305
0.713354
0.474738
0.004393
0.818387
0.474155
0.006999
0.679309
0.014248
0.522427
0.985473
0.497673
0.451269
0.705676
0.915238
0.052345
0.022202
0.299070
0.434995
0.410506
0.959707
0.090307
0.876982
0.824352
0.370398
0.179400
0.940020
0.803343
0.434475
0.081406
0.098151
0.864972
0.233097
0.819725
0.655615
0.573336
0.714996
0.787145
0.295782
0.336788
0.634378
0.299871
0.296343
0.565453
0.354911
0.984900
0.023899
0.577679
0.724081
0.475637
0.100860
0.309571
0.106995
0.617678
0.034554
0.147711
0.172403
0.943924
0.261130
0.763082
0.593578
0.432389
0.397788
0.257129
0.745978
0.171233
0.849740
0.524757
0.401443
0.669398
0.702641
0.414794
0.510321
0.119632
0.753598
0.089100
0.625706
0.458444
0.699491
0.322917
0.337790
0.385947
0.131656
0.071185
0.498220
0.752575
0.080579
0.751233
0.799803
0.515659
0.631704
0.806754
0.879678
0.845656
0.981015
0.837481
0.678692
0.820165
0.989534
0.777691
0.001771
0.381628
0.310093
0.466497
0.799134
0.292649
0.463402
0.308917
0.315780
0.514686
0.235879
0.346928
0.717965
0.928411
0.224283
0.384322
0.929782
0.123965
0.308647
0.675995
0.758818
0.627931
0.963191
0.099467
0.548710
0.763042
0.095158
0.082664
0.682167
0.778815
0.648350
0.376318
0.468037
0.968568
0.526103
0.334827
0.235360
0.729905
0.410694
0.543104
0.482285
0.255190
0.055479
0.388053
0.806339
0.254879
0.783546
0.445167
0.403378
0.852167
0.221432
0.843454
0.118955
0.540733
0.509431
0.786889
0.677245
0.215473
0.203854
0.209501
0.196687
0.651821
0.478779
0.442829
0.340720
0.352536
0.282904
0.094289
0.914675
0.419682
0.419055
0.363176
0.267267
0.921559
0.654903
0.995543
0.137801
0.036983
0.342572
0.433844
0.041329
0.922028
0.239558
0.891332
0.781360
0.350190
0.361617
0.914407
0.799742
0.988073
0.148972
0.438732
0.793016
0.010123
0.888779
0.725906
0.069275
0.417018
0.345822
0.742934
0.020552
0.666468
0.980658
0.665507
0.521263
0.716955
0.962083
0.918976
0.506458
0.248111
0.942563
0.728164
0.679735
0.881353
0.186097
0.976721
0.558925
0.224585
0.428367
0.957512
0.439607
0.981543
0.116544
0.325826
0.325656
0.497414
0.872300
0.066707
0.164845
0.907903
0.226806
0.872647
0.343602
0.533202
0.527739
0.146374
0.750636
0.712689
0.088348
0.241799
0.661570
0.367002
0.779885
0.219348
0.336857
0.044331
0.460434
0.406093
0.363660
0.544650
0.412599
0.951414
0.051007
0.903868
0.705668
0.602742
0.320685
0.804332
0.737811
0.176509
0.211512
0.218581
0.932134
0.369448
0.586187
0.737625
0.130122
0.411490
0.498058
0.128173
0.988208
0.114208
0.548558
0.607987
0.474322
0.881437
0.337472
0.188388
0.979969
0.157309
0.175305
0.669061
0.237602
0.446905
0.043673
0.990896
0.958416
0.139772
0.937711
0.544462
0.829287
0.883977
0.363730
0.570262
0.840867
0.377060
0.101191
0.323759
0.504947
0.001402
0.331327
0.558697
0.070916
0.273220
0.429153
0.760466
0.542353
0.831598
0.721026
0.038077
0.845574
0.929804
0.625827
0.626394
0.224038
0.512525
0.127689
0.643460
0.473317
0.555602
0.039432
0.667733
0.311616
0.481175
0.884933
0.923066
0.373676
0.828024
0.256130
0.469646
0.015230
0.524243
0.236264
0.634378
0.388698
0.505432
0.978994
0.564281
0.811451
0.051208
0.101971
0.286788
0.516317
0.295121
0.308462
0.213228
0.379659
0.595529
0.255947
0.448658
0.119285
0.075711
0.615673
0.999850
0.441581
0.384109
0.797366
0.587270
0.387617
0.670442
0.555370
0.054900
0.035167
0.332108
0.215493
0.864487
0.685774
0.388196
0.965457
0.999088
0.127130
0.703117
0.033742
0.517732
0.192048
0.812110
0.185859
0.338939
0.880227
0.412395
0.338076
0.185401
0.549512
0.642990
0.147843
0.823367
0.246035
0.361154
0.239848
0.376706
0.189344
0.717205
0.155588
0.919984
0.479051
0.640089
0.376713
0.162338
0.228981
0.228808
0.695391
0.172098
0.773197
0.532364
0.511484
0.241839
0.488290
0.724971
0.901177
0.340455
0.781252
0.308248
0.861138
0.728463
0.935920
0.446554
0.629086
0.908807
0.264978
0.855201
0.590431
0.535254
0.155980
0.215663
0.845923
0.872166
0.887784
0.773153
0.880131
0.579228
0.626387
0.428227
0.646766
0.548073
0.090333
0.346286
0.243202
0.846014
0.118355
0.584470
0.400555
0.809499
0.678217
0.374072
0.752729
0.723200
0.001944
0.247964
0.717006
0.280964
0.341426
0.480132
0.068928
0.353434
0.263263
0.854850
0.345954
0.180408
0.081108
0.646232
0.997898
0.105845
0.713454
0.742497
0.562428
0.163641
0.599456
0.896911
0.746712
0.993600
0.087275
0.140645
0.034756
0.095406
0.614872
0.643723
0.511043
0.392451
0.069080
0.709235
0.032413
0.345737
0.401070
0.484976
0.221123
0.068537
0.549251
0.323087
0.047473
0.346040
0.338845
0.862231
0.108475
0.880486
0.243917
0.170652
0.287673
0.697079
0.835788
0.201041
0.521794
0.134207
0.192662
0.944727
0.827824
0.480173
0.564090
0.368414
0.651295
0.140755
0.874196
0.329913
0.204311
0.856823
0.201275
0.073124
0.455727
0.328154
0.431903
0.716753
0.905918
0.776173
0.732581
0.229830
0.882820
0.784078
0.201683
0.619955
0.457091
0.582627
0.491442
0.539282
0.488878
0.877800
0.721467
0.363584
0.470060
0.950871
0.236994
0.828123
0.326075
0.023455
0.825673
0.678929
0.487256
0.305444
0.008149
0.664669
0.265330
0.195779
0.642692
0.264983
0.117967
0.968273
0.443224
0.841658
0.238788
0.897097
0.727293
0.230872
0.911380
0.016809
0.520903
0.848016
0.794929
0.849737
0.835196
0.706292
0.448244
0.029972
0.523522
0.612002
0.631977
0.190940
0.985514
0.235251
0.221212
0.450446
0.415191
0.245897
0.819984
0.286505
0.826655
0.317383
0.734099
0.153869
0.196715
0.829962
0.741117
0.643056
0.174692
0.933315
0.180872
0.829010
0.904467
0.393395
0.938620
0.978377
0.991319
0.999182
0.995193
0.243128
0.936698
0.376452
0.193073
0.635171
0.374378
0.496534
0.599754
0.958425
0.158221
0.623368
0.237869
0.417512
0.829472
0.627066
0.574795
0.705456
0.864591
0.024096
0.289784
0.145155
0.101672
0.673495
0.869884
0.243583
0.367867
0.736169
0.792967
0.355175
0.442036
0.190116
0.884318
0.615416
0.029714
0.535990
0.336076
0.038097
0.186011
0.919426
0.057914
0.658164
0.584694
0.735644
0.657124
0.827464
0.722041
0.996304
0.915272
0.464033
0.389647
0.552037
0.138276
0.534401
0.869887
0.920848
0.776796
0.495757
0.644063
0.991511
0.719116
0.992657
0.209523
0.077651
0.207443
0.510603
0.212117
0.006884
0.853110
0.757743
0.494731
0.913783
0.316873
0.913068
0.368222
0.142236
0.561986
0.768658
0.372521
0.077402
0.438172
0.298714
0.234142
0.536252
0.771738
0.465482
0.941442
0.666110
0.582793
0.405273
0.966960
0.711065
0.974812
0.327836
0.589128
0.353200
0.246227
0.757036
0.121869
0.245288
0.631624
0.622846
0.215624
0.786652
0.002785
0.965871
0.271325
0.586404
0.248098
0.025590
0.856019
0.720607
0.487169
0.976207
0.765477
0.025070
0.147642
0.459749
0.898065
0.621451
0.810078
0.778837
0.688671
0.009951
0.168037
0.293244
0.282838
0.756346
0.896234
0.762141
0.791207
0.760188
0.613062
0.692158
0.693113
0.666887
0.283492
0.400408
0.289775
0.702461
0.053483
0.464539
0.538427
0.130278
0.960915
0.045269
0.976983
0.387552
0.310207
0.726342
0.696581
0.991343
0.085929
0.981987
0.748891
0.569294
0.640196
0.180455
0.732477
0.812733
0.497506
0.889669
0.854006
0.729691
0.552971
0.666749
0.762681
0.426626
0.082378
0.189201
0.725614
0.643293
0.189983
0.684088
0.052040
0.710109
0.099912
0.414728
0.737401
0.202614
0.810485
0.142242
0.855853
0.983856
0.481720
0.991960
0.163862
0.705757
0.422735
0.016101
0.659506
0.718838
0.315143
0.016835
0.022011
0.004677
0.298404
0.473737
0.010955
0.025230
0.153870
0.303064
0.279142
0.550838
0.777650
0.586914
0.054231
0.037026
0.605565
0.362034
0.367157
0.586429
0.281232
0.430542
0.807868
0.792479
0.173117
0.301559
0.945912
0.253992
0.084206
0.703777
0.653241
0.707498
0.848157
0.374493
0.191590
0.989496
0.215492
0.805934
0.557345
0.933278
0.602797
0.792299
0.234234
0.633093
0.321828
0.926068
0.152762
0.939299
0.731229
0.567757
0.566044
0.731868
0.414604
0.401071
0.708002
0.026443
0.924114
0.577442
0.943698
0.555212
0.591167
0.176663
0.409003
0.539169
0.558802
0.315266
0.922125
0.962566
0.958622
0.682637
0.815648
0.332171
0.684464
0.881559
0.649054
0.860802
0.777122
0.061770
0.701517
0.307015
0.071431
0.594662
0.752585
0.379118
0.282547
0.356459
0.525159
0.607105
0.403665
0.755520
0.936241
0.979577
0.580717
0.079230
0.311199
0.322382
0.732502
0.241155
0.880802
0.289937
0.958448
0.334335
0.210534
0.435086
0.570385
0.357349
0.604815
0.979514
0.581774
0.435552
0.508336
0.835372
0.680706
0.767246
0.526798
0.011874
0.594042
0.564649
0.915201
0.879083
0.681672
0.175621
0.760489
0.393693
0.145037
0.276773
0.430339
0.355922
0.979394
0.757969
0.390014
0.405101
0.273385
0.627609
0.873246
0.965099
0.186799
0.938305
0.051900
0.748113
0.760383
0.106926
0.731593
0.102069
0.075661
0.751203
0.651002
0.214558
0.354165
0.122243
0.592166
0.859064
0.788374
0.986811
0.697337
0.336176
0.079097
0.013266
0.694128
0.941175
0.491507
0.075816
0.075449
0.983893
0.584553
0.467135
0.539030
0.608638
0.596356
0.122999
0.152472
0.370344
0.886060
0.291464
0.466536
0.671224
0.349168
0.792117
0.577678
0.239853
0.564562
0.504797
0.450059
0.208921
0.698536
0.966369
0.967489
0.331714
0.428406
0.257430
0.281107
0.748640
0.457441
0.556832
0.068367
0.009303
0.325863
0.707430
0.519044
0.464722
0.774812
0.925477
0.783786
0.016211
0.529906
0.944141
0.502833
0.977582
0.288778
0.434617
0.268700
0.181745
0.847859
0.328513
0.599950
0.401411
0.367781
0.000574
0.537936
0.387645
0.669081
0.117955
0.983426
0.136182
0.068150
0.898842
0.008100
0.713790
0.536223
0.376192
0.550162
0.295945
0.767814
0.133108
0.072164
0.970711
0.320705
0.909669
0.553263
0.720575
0.888789
0.875313
0.742126
0.694967
0.043240
0.360041
0.582042
0.158663
0.850897
0.549298
0.526357
0.270922
0.440431
0.179091
0.138878
0.194535
0.695506
0.686859
0.548276
0.308149
0.778754
0.666520
0.903871
0.223031
0.245678
0.314804
0.547927
0.200518
0.935767
0.586052
0.366744
0.624788
0.522932
0.649029
0.669364
0.873350
0.112620
0.701939
0.944248
0.909947
0.740676
0.198282
0.563982
0.205101
0.814088
0.661889
0.065958
0.281354
0.076972
0.903353
0.805421
0.108769
0.919330
0.707752
0.850098
0.419145
0.335425
0.502857
0.029193
0.722077
0.475181
0.411254
0.717780
0.419818
0.912616
0.666685
0.401443
0.505868
0.377849
0.931813
0.431201
0.465998
0.750863
0.265335
0.600252
0.203761
0.982715
0.493214
0.121851
0.947237
0.881688
0.098161
0.153868
0.824667
0.445351
0.774447
0.259134
0.721213
0.033605
0.772310
0.782032
0.214118
0.326865
0.161991
0.531605
0.034175
0.436519
0.351797
0.212853
0.888461
0.257164
0.474872
0.031473
0.239584
0.828256
0.546443
0.534841
0.518119
0.839432
0.859792
0.461927
0.308980
0.799011
0.307575
0.378025
0.527065
0.845550
0.824334
0.412389
0.349051
0.848363
0.098019
0.463752
0.839003
0.496197
0.924382
0.997800
0.726032
0.280790
0.549607
0.580589
0.828776
0.478541
0.633357
0.048885
0.238058
0.250354
0.929027
0.109077
0.234533
0.428433
0.021739
0.482240
0.084347
0.373865
0.290981
0.188489
0.945597
0.863039
0.003065
0.135158
0.472236
0.442901
0.662686
0.709697
0.566504
0.729203
0.927933
0.777894
0.685591
0.266396
0.146178
0.217366
0.294810
0.929634
0.650213
0.148075
0.335989
0.609242
0.476556
0.232327
0.968519
0.977082
0.309207
0.752496
0.475689
0.098719
0.483641
0.836306
0.901421
0.015624
0.845857
0.203101
0.110912
0.845743
0.433177
0.761219
0.637966
0.110970
0.454187
0.682251
0.036732
0.057905
0.087239
0.730215
0.232825
0.255618
0.642150
0.757647
0.906903
0.076505
0.358808
0.999546
0.208880
0.434656
0.239278
0.609576
0.864877
0.122217
0.746341
0.055023
0.201088
0.265248
0.464677
0.042153
0.448404
0.076950
0.935156
0.654358
0.495734
0.433935
0.599892
0.746417
0.212933
0.522557
0.621943
0.289386
0.053408
0.705596
0.341759
0.213305
0.072345
0.376329
0.538437
0.414836
0.742781
0.125736
0.578044
0.525577
0.059655
0.032179
0.620637
0.510214
0.416426
0.736148
0.373696
0.648499
0.083724
0.459485
0.201679
0.949299
0.809698
0.534930
0.280427